
    -----------------------------------------------------------------------
          Psi4: An Open-Source Ab Initio Electronic Structure Package
                               Psi4 1.10 release

                         Git: Rev {} zzzzzzz 


    D. G. A. Smith, L. A. Burns, A. C. Simmonett, R. M. Parrish,
    M. C. Schieber, R. Galvelis, P. Kraus, H. Kruse, R. Di Remigio,
    A. Alenaizan, A. M. James, S. Lehtola, J. P. Misiewicz, M. Scheurer,
    R. A. Shaw, J. B. Schriber, Y. Xie, Z. L. Glick, D. A. Sirianni,
    J. S. O'Brien, J. M. Waldrop, A. Kumar, E. G. Hohenstein,
    B. P. Pritchard, B. R. Brooks, H. F. Schaefer III, A. Yu. Sokolov,
    K. Patkowski, A. E. DePrince III, U. Bozkaya, R. A. King,
    F. A. Evangelista, J. M. Turney, T. D. Crawford, C. D. Sherrill,
    J. Chem. Phys. 152(18) 184108 (2020). https://doi.org/10.1063/5.0006002

                            Additional Code Authors
    E. T. Seidl, C. L. Janssen, E. F. Valeev, M. L. Leininger,
    J. F. Gonthier, R. M. Richard, H. R. McAlexander, M. Saitow, X. Wang,
    P. Verma, M. H. Lechner, A. Jiang, S. Behnle, A. G. Heide,
    M. F. Herbst, D. L. Poole, T. Győri, E. C. Mitchell, J. P. Pederson,
    and A. M. Wallace

             Previous Authors, Complete List of Code Contributors,
                       and Citations for Specific Modules
    https://github.com/psi4/psi4/blob/master/codemeta.json
    https://github.com/psi4/psi4/graphs/contributors
    https://psicode.org/psi4manual/master/introduction.html#citing-psifour

    -----------------------------------------------------------------------


    Psi4 started on: Friday, 26 December 2025 12:05AM

    Process ID: 13263
    Host:       Matheuss-Air
    PSIDATADIR: /Users/mferraz/miniconda3/share/psi4
    Memory:     500.0 MiB
    Threads:    1
    Addons:     a̶d̶c̶c̶, a̶m̶b̶i̶t̶, b̶s̶e̶, c̶c̶t̶3̶, c̶f̶o̶u̶r̶, c̶h̶e̶m̶p̶s̶2̶, c̶p̶p̶e̶, d̶d̶x̶,
                d̶f̶t̶d̶3̶, d̶f̶t̶d̶4̶, dkh, ecpint, einsums, f̶o̶r̶t̶e̶, g̶a̶u̶x̶c̶, g̶c̶p̶,
                g̶d̶m̶a̶, g̶e̶o̶m̶e̶t̶r̶i̶c̶, g̶p̶u̶_̶d̶f̶c̶c̶, i̶n̶t̶e̶g̶r̶a̶t̶o̶r̶x̶x̶,
                i̶p̶i̶, l̶i̶b̶e̶f̶p̶, m̶d̶i̶, m̶p̶2̶d̶, m̶r̶c̶c̶, ooo,
                o̶p̶e̶n̶f̶e̶r̶m̶i̶o̶n̶p̶s̶i̶4̶, pcmsolver, p̶s̶i̶4̶f̶o̶c̶k̶c̶i̶, p̶s̶i̶x̶a̶s̶,
                r̶e̶s̶p̶, s̶i̶m̶i̶n̶t̶, s̶n̶s̶m̶p̶2̶, v̶2̶r̶d̶m̶_̶c̶a̶s̶s̶c̶f̶

  ==> Input File <==

--------------------------------------------------------------------------
# Methane ESP calculation with Psi4

molecule methane {
0 1
C      0.000000    0.000000    0.000000
H      0.629118    0.629118    0.629118
H     -0.629118   -0.629118    0.629118
H     -0.629118    0.629118   -0.629118
H      0.629118   -0.629118   -0.629118
units angstrom
}

# Basis set and method
set {
  basis 6-31G*
  scf_type df
}

# Run DFT calculation
energy, wfn = energy('B3LYP', return_wfn=True)

# Generate ESP cube file
set {
  cubeprop_tasks ['ESP']
  cubic_grid_spacing [0.3, 0.3, 0.3]
  cubic_grid_overage [4.0, 4.0, 4.0]
}

cubeprop(wfn)

print("\n=== Calculation Complete ===")
print(f"SCF Energy: {energy:.8f} Hartree")
print("ESP cube file generated: ESP.cube")
print("\nTo use with charge_optimizer:")
print("  ./charge_optimizer methane.xyz ESP.cube")
--------------------------------------------------------------------------

Scratch directory: /tmp/
   => Libint2 <=

    Primary   basis highest AM E, G, H:  6, 6, 3
    Auxiliary basis highest AM E, G, H:  7, 7, 4
    Onebody   basis highest AM E, G, H:  -, -, -
    Solid Harmonics ordering:            Gaussian

*** tstart() called on Matheuss-Air
*** at Fri Dec 26 00:05:41 2025

   => Loading Basis Set <=

    Name: 6-31G*
    Role: ORBITAL
    Keyword: BASIS
    atoms 1   entry C          line   111 file /Users/mferraz/miniconda3/share/psi4/basis/6-31gs.gbs 
    atoms 2-5 entry H          line    44 file /Users/mferraz/miniconda3/share/psi4/basis/6-31gs.gbs 


         ---------------------------------------------------------
                                   SCF
               by Justin Turney, Rob Parrish, Andy Simmonett
                          and Daniel G. A. Smith
                              RKS Reference
                        1 Threads,    500 MiB Core
         ---------------------------------------------------------

  ==> Geometry <==

    Molecular point group: c2v
    Full point group: Td

    Geometry (in Angstrom), charge = 0, multiplicity = 1:

       Center              X                  Y                   Z               Mass       
    ------------   -----------------  -----------------  -----------------  -----------------
         C            0.000000000000     0.000000000000     0.000000000000    12.000000000000
         H            0.889707207933     0.000000000000     0.629118000000     1.007825032230
         H           -0.889707207933    -0.000000000000     0.629118000000     1.007825032230
         H           -0.000000000000     0.889707207933    -0.629118000000     1.007825032230
         H            0.000000000000    -0.889707207933    -0.629118000000     1.007825032230

  Running in c2v symmetry.

  Rotational constants: A =      5.28271  B =      5.28271  C =      5.28271 [cm^-1]
  Rotational constants: A = 158371.79858  B = 158371.79858  C = 158371.79858 [MHz]
  Nuclear repulsion =   13.439527883555352

  Charge       = 0
  Multiplicity = 1
  Electrons    = 10
  Nalpha       = 5
  Nbeta        = 5

  ==> Algorithm <==

  SCF Algorithm Type is DF.
  DIIS enabled.
  MOM disabled.
  Fractional occupation disabled.
  Guess Type is SAD.
  Energy threshold   = 1.00e-06
  Density threshold  = 1.00e-06
  Integral threshold = 1.00e-12

  ==> Primary Basis <==

  Basis Set: 6-31G*
    Blend: 6-31G*
    Number of shells: 14
    Number of basis functions: 23
    Number of Cartesian functions: 23
    Spherical Harmonics?: false
    Max angular momentum: 2

  ==> DFT Potential <==

   => LibXC <=

    Version 7.0.0
    S. Lehtola, C. Steigemann, M. J.T. Oliveira, and M. A.L. Marques.,  SoftwareX 7, 1–5 (2018) (10.1016/j.softx.2017.11.002)

   => Composite Functional: B3LYP <= 

    B3LYP Hyb-GGA Exchange-Correlation Functional

    P. J. Stephens, F. J. Devlin, C. F. Chabalowski, and M. J. Frisch.,  J. Phys. Chem. 98, 11623 (1994) (10.1021/j100096a001)

    Deriv               =              1
    GGA                 =           TRUE
    Meta                =          FALSE

    Exchange Hybrid     =           TRUE
    MP2 Hybrid          =          FALSE

   => Exchange Functionals <=

    0.0800   Slater exchange
    0.7200         Becke 88

   => Exact (HF) Exchange <=

    0.2000               HF 

   => Correlation Functionals <=

    0.1900   Vosko, Wilk & Nusair (VWN5_RPA)
    0.8100   Lee, Yang & Parr

   => LibXC Density Thresholds  <==

    XC_HYB_GGA_XC_B3LYP:  1.00E-15 

   => Molecular Quadrature <=

    Radial Scheme          =       TREUTLER
    Pruning Scheme         =           NONE
    Nuclear Scheme         =       TREUTLER

    Blocking Scheme        =         OCTREE
    BS radius alpha        =              1
    Pruning alpha          =              1
    Radial Points          =             75
    Spherical Points       =            302
    Total Points           =         109134
    Total Blocks           =            893
    Max Points             =            256
    Max Functions          =             23
    Weights Tolerance      =       1.00E-15

   => Loading Basis Set <=

    Name: (6-31G* AUX)
    Role: JKFIT
    Keyword: DF_BASIS_SCF
    atoms 1   entry C          line   121 file /Users/mferraz/miniconda3/share/psi4/basis/cc-pvdz-jkfit.gbs 
    atoms 2-5 entry H          line    51 file /Users/mferraz/miniconda3/share/psi4/basis/cc-pvdz-jkfit.gbs 

  ==> Integral Setup <==

  DFHelper Memory: AOs need 0.001 GiB; user supplied 0.293 GiB. 
  SCF_SUBTYPE=INCORE selected. In-core MEM_DF algorithm will be used.
  Using in-core AOs.

  ==> MemDFJK: Density-Fitted J/K Matrices <==

    J tasked:                   Yes
    K tasked:                   Yes
    wK tasked:                   No
    OpenMP threads:               1
    Memory [MiB]:               300
    Algorithm:                 Core
    Schwarz Cutoff:           1E-12
    Mask sparsity (%):       0.0000
    Fitting Condition:        1E-10

   => Auxiliary Basis Set <=

  Basis Set: (6-31G* AUX)
    Blend: CC-PVDZ-JKFIT
    Number of shells: 60
    Number of basis functions: 181
    Number of Cartesian functions: 181
    Spherical Harmonics?: false
    Max angular momentum: 3

  Cached 100.0% of DFT collocation blocks in 0.073 [GiB].

  Minimum eigenvalue in the overlap matrix is 1.6612871778E-02.
  Reciprocal condition number of the overlap matrix is 3.2678191152E-03.
    Using symmetric orthogonalization.

  ==> Pre-Iterations <==

  SCF Guess: Superposition of Atomic Densities via on-the-fly atomic UHF (no occupation information).

   -------------------------
    Irrep   Nso     Nmo    
   -------------------------
     A1        12      12 
     A2         1       1 
     B1         5       5 
     B2         5       5 
   -------------------------
    Total      23      23
   -------------------------

  ==> Iterations <==

                           Total Energy        Delta E     RMS |[F,P]|

   @DF-RKS iter SAD:   -40.18470202832741   -4.01847e+01   0.00000e+00 
   @DF-RKS iter   1:   -40.18325013863912    1.45189e-03   5.04313e-02 ADIIS/DIIS
   @DF-RKS iter   2:   -40.15701401809221    2.62361e-02   6.22973e-02 ADIIS/DIIS
   @DF-RKS iter   3:   -40.51805209198866   -3.61038e-01   1.89290e-03 ADIIS/DIIS
   @DF-RKS iter   4:   -40.51837327158908   -3.21180e-04   1.13455e-04 ADIIS/DIIS
   @DF-RKS iter   5:   -40.51837442765022   -1.15606e-06   3.19223e-06 DIIS
   @DF-RKS iter   6:   -40.51837442865433   -1.00412e-09   3.14259e-07 DIIS
  Energy and wave function converged.


  ==> Post-Iterations <==

   Electrons on quadrature grid:
      Ntotal   =   10.0000038632 ; deviation = 3.863e-06 

    Orbital Energies [Eh]
    ---------------------

    Doubly Occupied:                                                      

       1A1   -10.165418     2A1    -0.691388     3A1    -0.389668  
       1B2    -0.389667     1B1    -0.389667  

    Virtual:                                                              

       4A1     0.118799     5A1     0.177689     2B1     0.177689  
       2B2     0.177689     6A1     0.532141     3B2     0.532142  
       3B1     0.532143     4B1     0.900586     4B2     0.900586  
       7A1     0.900586     8A1     0.952873     9A1     1.100956  
      10A1     1.656320     1A2     1.656321    11A1     2.248307  
       5B2     2.248308     5B1     2.248308    12A1     4.181814  

    Final Occupation by Irrep:
             A1    A2    B1    B2 
    DOCC [     3,    0,    1,    1 ]
    NA   [     3,    0,    1,    1 ]
    NB   [     3,    0,    1,    1 ]

  @DF-RKS Final Energy:   -40.51837442865433

   => Energetics <=

    Nuclear Repulsion Energy =             13.4395278835553516
    One-Electron Energy =                 -79.8419012133208952
    Two-Electron Energy =                  31.4749803881055605
    DFT Exchange-Correlation Energy =      -5.5909814869943579
    Empirical Dispersion Energy =           0.0000000000000000
    VV10 Nonlocal Energy =                  0.0000000000000000
    Total Energy =                        -40.5183744286543330

Computation Completed


Properties will be evaluated at   0.000000,   0.000000,   0.000000 [a0]

Properties computed using the SCF density matrix


 Multipole Moments:

 ------------------------------------------------------------------------------------
     Multipole            Electronic (a.u.)      Nuclear  (a.u.)        Total (a.u.)
 ------------------------------------------------------------------------------------

 L = 1.  Multiply by 2.5417464519 to convert [e a0] to [Debye]
 Dipole X            :          0.0000000            0.0000000            0.0000000
 Dipole Y            :          0.0000000            0.0000000            0.0000000
 Dipole Z            :         -0.0000009            0.0000000           -0.0000009
 Magnitude           :                                                    0.0000009

 ------------------------------------------------------------------------------------

*** tstop() called on Matheuss-Air at Fri Dec 26 00:05:42 2025
Module time:
	user time   =       0.79 seconds =       0.01 minutes
	system time =       0.11 seconds =       0.00 minutes
	total time  =          1 seconds =       0.02 minutes
Total time:
	user time   =       0.79 seconds =       0.01 minutes
	system time =       0.11 seconds =       0.00 minutes
	total time  =          1 seconds =       0.02 minutes
  ==> One Electron Grid Properties (v2.0) <==

  ==> CubicScalarGrid <==

    Filepath     = .
    Total Points =            54756
    XYZ Blocking =               10
    X Points     =               39
    Y Points     =               39
    Z Points     =               36
    X Spacing    =        3.000E-01
    Y Spacing    =        3.000E-01
    Z Spacing    =        3.000E-01
    X Minimum    =       -5.700E+00
    Y Minimum    =       -5.700E+00
    Z Minimum    =       -5.250E+00
    X Maximum    =        5.700E+00
    Y Maximum    =        5.700E+00
    Z Maximum    =        5.250E+00

  Basis Set: 6-31G*
    Blend: 6-31G*
    Number of shells: 14
    Number of basis functions: 23
    Number of Cartesian functions: 23
    Spherical Harmonics?: false
    Max angular momentum: 2


    Psi4 stopped on: Friday, 26 December 2025 12:05AM
    Psi4 wall time for execution: 0:00:01.34

*** Psi4 exiting successfully. Buy a developer a beer!
