
    -----------------------------------------------------------------------
          Psi4: An Open-Source Ab Initio Electronic Structure Package
                               Psi4 1.10 release

                         Git: Rev {} zzzzzzz 


    D. G. A. Smith, L. A. Burns, A. C. Simmonett, R. M. Parrish,
    M. C. Schieber, R. Galvelis, P. Kraus, H. Kruse, R. Di Remigio,
    A. Alenaizan, A. M. James, S. Lehtola, J. P. Misiewicz, M. Scheurer,
    R. A. Shaw, J. B. Schriber, Y. Xie, Z. L. Glick, D. A. Sirianni,
    J. S. O'Brien, J. M. Waldrop, A. Kumar, E. G. Hohenstein,
    B. P. Pritchard, B. R. Brooks, H. F. Schaefer III, A. Yu. Sokolov,
    K. Patkowski, A. E. DePrince III, U. Bozkaya, R. A. King,
    F. A. Evangelista, J. M. Turney, T. D. Crawford, C. D. Sherrill,
    J. Chem. Phys. 152(18) 184108 (2020). https://doi.org/10.1063/5.0006002

                            Additional Code Authors
    E. T. Seidl, C. L. Janssen, E. F. Valeev, M. L. Leininger,
    J. F. Gonthier, R. M. Richard, H. R. McAlexander, M. Saitow, X. Wang,
    P. Verma, M. H. Lechner, A. Jiang, S. Behnle, A. G. Heide,
    M. F. Herbst, D. L. Poole, T. Győri, E. C. Mitchell, J. P. Pederson,
    and A. M. Wallace

             Previous Authors, Complete List of Code Contributors,
                       and Citations for Specific Modules
    https://github.com/psi4/psi4/blob/master/codemeta.json
    https://github.com/psi4/psi4/graphs/contributors
    https://psicode.org/psi4manual/master/introduction.html#citing-psifour

    -----------------------------------------------------------------------


    Psi4 started on: Friday, 26 December 2025 12:14AM

    Process ID: 14021
    Host:       Matheuss-Air
    PSIDATADIR: /Users/mferraz/miniconda3/share/psi4
    Memory:     500.0 MiB
    Threads:    1
    Addons:     a̶d̶c̶c̶, a̶m̶b̶i̶t̶, b̶s̶e̶, c̶c̶t̶3̶, c̶f̶o̶u̶r̶, c̶h̶e̶m̶p̶s̶2̶, c̶p̶p̶e̶, d̶d̶x̶,
                d̶f̶t̶d̶3̶, d̶f̶t̶d̶4̶, dkh, ecpint, einsums, f̶o̶r̶t̶e̶, g̶a̶u̶x̶c̶, g̶c̶p̶,
                g̶d̶m̶a̶, g̶e̶o̶m̶e̶t̶r̶i̶c̶, g̶p̶u̶_̶d̶f̶c̶c̶, i̶n̶t̶e̶g̶r̶a̶t̶o̶r̶x̶x̶,
                i̶p̶i̶, l̶i̶b̶e̶f̶p̶, m̶d̶i̶, m̶p̶2̶d̶, m̶r̶c̶c̶, ooo,
                o̶p̶e̶n̶f̶e̶r̶m̶i̶o̶n̶p̶s̶i̶4̶, pcmsolver, p̶s̶i̶4̶f̶o̶c̶k̶c̶i̶, p̶s̶i̶x̶a̶s̶,
                r̶e̶s̶p̶, s̶i̶m̶i̶n̶t̶, s̶n̶s̶m̶p̶2̶, v̶2̶r̶d̶m̶_̶c̶a̶s̶s̶c̶f̶

  ==> Input File <==

--------------------------------------------------------------------------
# Water ESP calculation with Psi4

molecule water {
0 1
O      0.000000    0.000000    0.118720
H      0.000000    0.756950   -0.474880
H      0.000000   -0.756950   -0.474880
units angstrom
}

# Basis set and method
set {
  basis 6-31G*
  scf_type df
  reference rhf
}

# Run DFT calculation
energy, wfn = energy('B3LYP', return_wfn=True)

# Generate ESP cube file
set {
  cubeprop_tasks ['ESP']
  cubic_grid_spacing [0.3, 0.3, 0.3]
  cubic_grid_overage [4.0, 4.0, 4.0]
}

cubeprop(wfn)

print("\n=== Calculation Complete ===")
print(f"SCF Energy: {energy:.8f} Hartree")
print(f"Dipole moment: {wfn.variable('SCF DIPOLE')}")
print("ESP cube file generated: ESP.cube")
print("\nTo use with charge_optimizer:")
print("  ./charge_optimizer water.xyz ESP.cube -l 0.00001")
--------------------------------------------------------------------------

Scratch directory: /tmp/
   => Libint2 <=

    Primary   basis highest AM E, G, H:  6, 6, 3
    Auxiliary basis highest AM E, G, H:  7, 7, 4
    Onebody   basis highest AM E, G, H:  -, -, -
    Solid Harmonics ordering:            Gaussian

*** tstart() called on Matheuss-Air
*** at Fri Dec 26 00:14:23 2025

   => Loading Basis Set <=

    Name: 6-31G*
    Role: ORBITAL
    Keyword: BASIS
    atoms 1   entry O          line   145 file /Users/mferraz/miniconda3/share/psi4/basis/6-31gs.gbs 
    atoms 2-3 entry H          line    44 file /Users/mferraz/miniconda3/share/psi4/basis/6-31gs.gbs 


         ---------------------------------------------------------
                                   SCF
               by Justin Turney, Rob Parrish, Andy Simmonett
                          and Daniel G. A. Smith
                              RKS Reference
                        1 Threads,    500 MiB Core
         ---------------------------------------------------------

  ==> Geometry <==

    Molecular point group: c2v
    Full point group: C2v

    Geometry (in Angstrom), charge = 0, multiplicity = 1:

       Center              X                  Y                   Z               Mass       
    ------------   -----------------  -----------------  -----------------  -----------------
         O            0.000000000000     0.000000000000     0.066432668784    15.994914619570
         H           -0.000000000000     0.756950000000    -0.527167331216     1.007825032230
         H            0.000000000000    -0.756950000000    -0.527167331216     1.007825032230

  Running in c2v symmetry.

  Rotational constants: A =     26.72631  B =     14.59644  C =      9.44054 [cm^-1]
  Rotational constants: A = 801234.57411  B = 437590.28936  C = 283020.20687 [MHz]
  Nuclear repulsion =    9.151351719631228

  Charge       = 0
  Multiplicity = 1
  Electrons    = 10
  Nalpha       = 5
  Nbeta        = 5

  ==> Algorithm <==

  SCF Algorithm Type is DF.
  DIIS enabled.
  MOM disabled.
  Fractional occupation disabled.
  Guess Type is SAD.
  Energy threshold   = 1.00e-06
  Density threshold  = 1.00e-06
  Integral threshold = 1.00e-12

  ==> Primary Basis <==

  Basis Set: 6-31G*
    Blend: 6-31G*
    Number of shells: 10
    Number of basis functions: 19
    Number of Cartesian functions: 19
    Spherical Harmonics?: false
    Max angular momentum: 2

  ==> DFT Potential <==

   => LibXC <=

    Version 7.0.0
    S. Lehtola, C. Steigemann, M. J.T. Oliveira, and M. A.L. Marques.,  SoftwareX 7, 1–5 (2018) (10.1016/j.softx.2017.11.002)

   => Composite Functional: B3LYP <= 

    B3LYP Hyb-GGA Exchange-Correlation Functional

    P. J. Stephens, F. J. Devlin, C. F. Chabalowski, and M. J. Frisch.,  J. Phys. Chem. 98, 11623 (1994) (10.1021/j100096a001)

    Deriv               =              1
    GGA                 =           TRUE
    Meta                =          FALSE

    Exchange Hybrid     =           TRUE
    MP2 Hybrid          =          FALSE

   => Exchange Functionals <=

    0.0800   Slater exchange
    0.7200         Becke 88

   => Exact (HF) Exchange <=

    0.2000               HF 

   => Correlation Functionals <=

    0.1900   Vosko, Wilk & Nusair (VWN5_RPA)
    0.8100   Lee, Yang & Parr

   => LibXC Density Thresholds  <==

    XC_HYB_GGA_XC_B3LYP:  1.00E-15 

   => Molecular Quadrature <=

    Radial Scheme          =       TREUTLER
    Pruning Scheme         =           NONE
    Nuclear Scheme         =       TREUTLER

    Blocking Scheme        =         OCTREE
    BS radius alpha        =              1
    Pruning alpha          =              1
    Radial Points          =             75
    Spherical Points       =            302
    Total Points           =          65910
    Total Blocks           =            549
    Max Points             =            253
    Max Functions          =             19
    Weights Tolerance      =       1.00E-15

   => Loading Basis Set <=

    Name: (6-31G* AUX)
    Role: JKFIT
    Keyword: DF_BASIS_SCF
    atoms 1   entry O          line   221 file /Users/mferraz/miniconda3/share/psi4/basis/cc-pvdz-jkfit.gbs 
    atoms 2-3 entry H          line    51 file /Users/mferraz/miniconda3/share/psi4/basis/cc-pvdz-jkfit.gbs 

  ==> Integral Setup <==

  DFHelper Memory: AOs need 0.001 GiB; user supplied 0.330 GiB. 
  SCF_SUBTYPE=INCORE selected. In-core MEM_DF algorithm will be used.
  Using in-core AOs.

  ==> MemDFJK: Density-Fitted J/K Matrices <==

    J tasked:                   Yes
    K tasked:                   Yes
    wK tasked:                   No
    OpenMP threads:               1
    Memory [MiB]:               338
    Algorithm:                 Core
    Schwarz Cutoff:           1E-12
    Mask sparsity (%):       0.0000
    Fitting Condition:        1E-10

   => Auxiliary Basis Set <=

  Basis Set: (6-31G* AUX)
    Blend: CC-PVDZ-JKFIT
    Number of shells: 42
    Number of basis functions: 131
    Number of Cartesian functions: 131
    Spherical Harmonics?: false
    Max angular momentum: 3

  Cached 100.0% of DFT collocation blocks in 0.036 [GiB].

  Minimum eigenvalue in the overlap matrix is 2.1666481930E-02.
  Reciprocal condition number of the overlap matrix is 5.0762556095E-03.
    Using symmetric orthogonalization.

  ==> Pre-Iterations <==

  SCF Guess: Superposition of Atomic Densities via on-the-fly atomic UHF (no occupation information).

   -------------------------
    Irrep   Nso     Nmo    
   -------------------------
     A1        10      10 
     A2         1       1 
     B1         3       3 
     B2         5       5 
   -------------------------
    Total      19      19
   -------------------------

  ==> Iterations <==

                           Total Energy        Delta E     RMS |[F,P]|

   @DF-RKS iter SAD:   -76.64996406543931   -7.66500e+01   0.00000e+00 
   @DF-RKS iter   1:   -76.35204816442237    2.97916e-01   2.99655e-02 DIIS/ADIIS
   @DF-RKS iter   2:   -76.36173050550512   -9.68234e-03   3.18156e-02 DIIS/ADIIS
   @DF-RKS iter   3:   -76.40671564210257   -4.49851e-02   6.70031e-03 DIIS/ADIIS
   @DF-RKS iter   4:   -76.40878763873513   -2.07200e-03   1.31791e-03 DIIS/ADIIS
   @DF-RKS iter   5:   -76.40887173295518   -8.40942e-05   4.21949e-05 DIIS
   @DF-RKS iter   6:   -76.40887181939324   -8.64381e-08   1.46674e-06 DIIS
   @DF-RKS iter   7:   -76.40887181950885   -1.15605e-10   5.15800e-08 DIIS
  Energy and wave function converged.


  ==> Post-Iterations <==

   Electrons on quadrature grid:
      Ntotal   =   10.0000000398 ; deviation = 3.978e-08 

    Orbital Energies [Eh]
    ---------------------

    Doubly Occupied:                                                      

       1A1   -19.136927     2A1    -1.000707     1B2    -0.519928  
       3A1    -0.372383     1B1    -0.291634  

    Virtual:                                                              

       4A1     0.064485     2B2     0.150587     3B2     0.776000  
       5A1     0.867111     2B1     0.890753     6A1     0.895950  
       4B2     1.067591     7A1     1.194007     8A1     1.728176  
       1A2     1.744908     3B1     1.779087     9A1     2.288781  
       5B2     2.588956    10A1     3.555618  

    Final Occupation by Irrep:
             A1    A2    B1    B2 
    DOCC [     3,    0,    1,    1 ]
    NA   [     3,    0,    1,    1 ]
    NB   [     3,    0,    1,    1 ]

  @DF-RKS Final Energy:   -76.40887181950885

   => Energetics <=

    Nuclear Repulsion Energy =              9.1513517196312275
    One-Electron Energy =                -123.0498085164725239
    Two-Electron Energy =                  45.0498613198658759
    DFT Exchange-Correlation Energy =      -7.5602763425334141
    Empirical Dispersion Energy =           0.0000000000000000
    VV10 Nonlocal Energy =                  0.0000000000000000
    Total Energy =                        -76.4088718195088319

Computation Completed


Properties will be evaluated at   0.000000,   0.000000,   0.000000 [a0]

Properties computed using the SCF density matrix


 Multipole Moments:

 ------------------------------------------------------------------------------------
     Multipole            Electronic (a.u.)      Nuclear  (a.u.)        Total (a.u.)
 ------------------------------------------------------------------------------------

 L = 1.  Multiply by 2.5417464519 to convert [e a0] to [Debye]
 Dipole X            :          0.0000000            0.0000000            0.0000000
 Dipole Y            :          0.0000000            0.0000000            0.0000000
 Dipole Z            :          0.1654081           -0.9880874           -0.8226792
 Magnitude           :                                                    0.8226792

 ------------------------------------------------------------------------------------

*** tstop() called on Matheuss-Air at Fri Dec 26 00:14:23 2025
Module time:
	user time   =       0.56 seconds =       0.01 minutes
	system time =       0.09 seconds =       0.00 minutes
	total time  =          0 seconds =       0.00 minutes
Total time:
	user time   =       0.56 seconds =       0.01 minutes
	system time =       0.09 seconds =       0.00 minutes
	total time  =          0 seconds =       0.00 minutes
  ==> One Electron Grid Properties (v2.0) <==

  ==> CubicScalarGrid <==

    Filepath     = .
    Total Points =            34048
    XYZ Blocking =               10
    X Points     =               28
    Y Points     =               38
    Z Points     =               32
    X Spacing    =        3.000E-01
    Y Spacing    =        3.000E-01
    Z Spacing    =        3.000E-01
    X Minimum    =       -4.050E+00
    Y Minimum    =       -5.550E+00
    Z Minimum    =       -5.085E+00
    X Maximum    =        4.050E+00
    Y Maximum    =        5.550E+00
    Z Maximum    =        4.215E+00

  Basis Set: 6-31G*
    Blend: 6-31G*
    Number of shells: 10
    Number of basis functions: 19
    Number of Cartesian functions: 19
    Spherical Harmonics?: false
    Max angular momentum: 2


    Psi4 stopped on: Friday, 26 December 2025 12:14AM
    Psi4 wall time for execution: 0:00:00.96

*** Psi4 exiting successfully. Buy a developer a beer!
